LAMMPS (23 Jun 2022 - Update 1)
OMP_NUM_THREADS environment is not set. Defaulting to 1 thread. (src/comm.cpp:98)
  using 1 OpenMP thread(s) per MPI task
exit()
ERROR: Unknown command: exit() (src/input.cpp:279)
Last command: exit()
